ITEM: TIMESTEP
10210
ITEM: NUMBER OF ATOMS
60
ITEM: BOX BOUNDS pp pp pp
-10 10
-10 10
-10 10
ITEM: ATOMS id type x y z cluster
35 2 0.00636503 -1.52108 -3.76567 53
47 2 -0.993137 -0.232773 -3.93109 53
48 2 -0.392208 1.28873 -3.83136 53
25 2 1.60679 -1.28786 -3.50052 53
27 2 2.20772 0.233659 -3.40079 53
37 2 1.20823 1.52195 -3.56621 53
15 2 0.669637 -3.96744 -0.552278 53
22 2 -0.805147 -3.97735 0.162534 53
6 2 1.78439 -3.6 0.591557 53
10 2 0.99856 -3.38282 2.0133 53
18 2 -0.601862 -3.61604 1.74815 53
20 2 0.837748 -3.3884 -2.07627 53
32 2 -2.11184 -3.40822 -0.646639 53
52 2 -3.8363 0.552984 1.21283 53
57 2 -4.03959 0.191672 -0.37278 53
44 2 -3.32247 -0.601096 2.25695 53
50 2 -3.72905 -1.32372 -0.914295 53
60 2 -3.5643 1.48988 -1.25301 53
2 2 2.77846 -1.2727 2.67477 53
3 2 3.06726 -2.65352 0.211412 53
5 2 1.4956 -2.21916 3.05491 53
7 2 3.23537 -2.07449 -1.31256 53
8 2 2.46792 0.242685 3.21628 53
12 2 2.94322 1.5409 2.33604 53
16 2 2.12061 -2.44193 -2.45641 53
17 2 3.32247 0.601096 -2.25695 53
19 2 3.21522 2.47779 -0.12981 53
21 2 1.94373 2.82919 2.17062 53
23 2 3.01194 2.11648 -1.71544 53
28 2 -1.70526 -2.6856 2.52461 53
29 2 2.11184 3.40822 0.646639 53
30 2 0.468927 2.81928 2.88544 53
31 2 -0.468927 -2.81928 -2.88544 53
33 2 1.70526 2.6856 -2.52461 53
34 2 -2.20772 -0.233659 3.40079 53
38 2 -3.01194 -2.11648 1.71544 53
40 2 -1.94373 -2.82919 -2.17062 53
41 2 -0.837748 3.3884 2.07627 53
42 2 -3.21522 -2.47779 0.12981 53
45 2 -2.12061 2.44193 2.45641 53
49 2 -2.94322 -1.5409 -2.33604 53
51 2 -0.99856 3.38282 -2.0133 53
53 2 -2.46792 -0.242685 -3.21628 53
54 2 -3.23537 2.07449 1.31256 53
56 2 -1.4956 2.21916 -3.05491 53
58 2 -3.06726 2.65352 -0.211412 53
59 2 -2.77846 1.2727 -2.67477 53
1 2 3.5643 -1.48988 1.25301 53
9 2 3.8363 -0.552984 -1.21283 53
11 2 3.72905 1.32372 0.914295 53
4 2 4.03959 -0.191672 0.37278 53
43 2 0.601862 3.61604 -1.74815 53
55 2 -1.78439 3.6 -0.591557 53
39 2 0.805147 3.97735 -0.162534 53
46 2 -0.669637 3.96744 0.552278 53
13 2 0.392208 -1.28873 3.83136 53
24 2 -1.20823 -1.52195 3.56621 53
26 2 -0.00636501 1.52108 3.76567 53
36 2 -1.60679 1.28786 3.50052 53
14 2 0.993137 0.232773 3.93109 53
